# school project Makefiles

CC = gcc
SRC = $(wildcard *.c)
OBJ = $(SRC:.c=.o)
NAME = school
RM = /bin/rm -f

CFLAGS = -Wall -Werror -Wextra -pedantic

# Clean and rebuild
.PHONY: all clean oclean fclean re

# dependencies
-include m.h

# Building the executable
all: $(NAME)

$(NAME): $(OBJ)
	$(CC) $(CFLAGS) $(OBJ) -o $(NAME)

# clean all Emacs and Vim temporary files along with the executable
clean:
	$(RM) *~ $(NAME)

# clean the object files.
oclean:
	$(RM) $(OBJ)

# Deletes all Emacs and Vim temporary files, the executable, and the object files.
fclean: clean oclean

# Forces recompilation
re: fclean all
